ITEM: TIMESTEP
0
ITEM: NUMBER OF ATOMS
15
ITEM: BOX BOUNDS pp pp pp
-10.0000000000000000e+00 1.0000000000000000e+01
-10.0000000000000000e+00 1.0000000000000000e+01
-10.0000000000000000e+00 1.0000000000000000e+01
ITEM: ATOMS id type x y z
 1  1  -2.039   1.496   0.000 
 2  1  -0.831   0.775  -0.000 
 3  1  -0.844  -0.625  -0.000 
 4  1  -2.058  -1.316  -0.000 
 5  1  -3.263  -0.609   0.000 
 6  1  -3.256   0.792   0.000 
 7  2  -2.038   3.001   0.000 
 8  3  -1.005   3.411   0.000 
 9  3  -2.560   3.384   0.902 
10  3  -2.560   3.384  -0.902 
11  4   0.120   1.292  -0.000 
12  4  -4.201  -1.149   0.000 
13  4  -4.198   1.325   0.000 
14  4   0.087  -1.178  -0.000 
15  4  -2.064  -2.399  -0.000 
