ITEM: TIMESTEP
	0
ITEM: NUMBER OF ATOMS
	5
ITEM: BOX BOUNDS pp pp pp
   33.1975   55.1314
   32.7225   53.3363
   13.7365   39.9848
ITEM: ATOMS id type x y z
1         2        44.6898     39.3547     26.2481
2         3        43.6666     51.8406     26.2511
3         1        35.2505     35.4398     26.2455
4         2        42.9262     43.9301     26.2490
5         1        50.0062     50.4930     26.2511
