ITEM: TIMESTEP
0
ITEM: NUMBER OF ATOMS
101
ITEM: BOX BOUNDS ss ss ss
3.3197538783813620e+01 5.5131358052697315e+01
3.2722501637410076e+01 5.3336289933104432e+01
1.3736528608613495e+01 3.9984800756568333e+01
ITEM: ATOMS id mol type q mass x y z fx fy fz 
1 1 1 0 50     0.708  -0.785  -0.00432 1.99407 -18.3663 -20.341 
2 1 2 0 10     0.550   2.178  -0.00591 -2.59887 -3.30888 19.7682 
3 1 2 0 10     0.485   3.881   0.01676 10.1034 12.3812 14.4641 
4 1 2 0 10     0.345   6.067  -0.0299 -8.32222 -12.2359 -11.0169 
5 1 2 0 10     0.162   7.740   0.03632 4.73427 3.66503 2.54959 
6 1 1 0 50    -0.201  10.613   0.0028 7.76732 6.20771 -10.1247 
7 1 2 0 10     2.834  11.253  -0.00792 -13.2388 3.14212 1.24092 
8 1 2 0 10     4.559  11.779   0.01976 9.71719 -9.65315 0.065857 
9 1 2 0 10     6.827  12.657   0.01759 -17.7489 4.35612 4.71507 
10 1 2 0 10    8.553  13.403   0.0181 23.2146 -10.7939 -7.0955 
11 1 3 0 50   11.816  14.519  -0.02039 -25.6778 0.740111 11.5814 
12 1 2 0 10   11.415  12.052  -0.34602 -9.43319 1.62538 -5.57176 
13 1 2 0 10   12.404  10.391  -0.1084 4.13986 5.34167 2.97646 
14 1 2 0 10   13.218   9.223  -0.02252 -1.70917 -4.33922 -0.284292 
15 1 2 0 10   14.250   7.800  -0.00559 -0.44453 2.80963 1.19344 
16 1 2 0 10   15.654   6.868   0.003 1.38089 -1.29612 -1.65265 
17 1 2 0 10   13.402  13.078   0.64285 0.295459 6.44066 15.9315 
18 1 2 0 10   15.190  12.941   0.21555 4.57618 8.3333 -2.16135 
19 1 2 0 10   16.527  13.099   0.05343 -3.89914 -17.3878 -3.94401 
20 1 2 0 10   18.177  13.332   0.0296 0.976114 13.7343 -2.76578 
21 1 2 0 10   19.803  13.541  -0.03009 -1.23977 -3.77836 3.34092 
22 1 2 0 10   12.414  16.645   0.1853 0.379075 1.62573 -9.68045 
23 1 2 0 10   13.554  17.547   0.07052 1.25526 5.95827 14.8913 
24 1 2 0 10   15.213  18.218  -0.01182 1.00902 -9.66888 -10.7996 
25 1 2 0 10   16.567  18.666  -0.0043 -2.88791 3.18826 2.21406 
26 1 2 0 10   18.292  19.113  -0.01586 1.26735 0.0372891 -0.294501 
27 1 2 0 10    9.964  16.432  -0.04157 16.9108 -4.85089 -13.0356 
28 1 2 0 10   10.068  18.533  -0.04038 -6.07558 -4.11004 -8.19045 
29 1 2 0 10   10.330  20.036   0.03994 4.62832 4.75559 13.3115 
30 1 2 0 10   10.978  21.761  -0.02448 -3.89613 -4.3267 -4.51857 
31 1 2 0 10   11.658  22.980   0.02696 1.39215 2.02146 0.714701 
32 1 2 0 10   -0.161  13.465  -0.005 -4.11134 -5.11182 -5.12551 
33 1 2 0 10   -0.256  15.165  -0.03558 2.38023 10.5266 -0.789766 
34 1 2 0 10   -0.487  17.416   0.02426 -5.57318 -7.78584 0.383416 
35 1 2 0 10   -0.721  19.161  -0.02166 1.27542 5.27461 -2.51309 
36 1 1 0 50   -1.078  22.240   0.00838 10.2462 5.79977 5.4839 
37 1 2 0 10    1.170  22.996   0.00197 -1.85814 -13.4662 -5.1352 
38 1 2 0 10    2.403  23.747  -0.01646 -6.80775 7.73615 4.90222 
39 1 2 0 10    3.871  24.677   0.03349 3.04138 0.192533 -2.76999 
40 1 2 0 10    5.013  25.401   0.02806 2.02996 -2.05575 0.858986 
41 1 2 0 10    6.377  26.242  -0.03792 -1.83354 0.691953 0.391638 
42 1 2 0 10   -0.812  24.551  -0.00519 0.382894 -3.4956 4.22727 
43 1 2 0 10   -0.905  25.966  -0.0083 -5.90115 6.83293 -6.45524 
44 1 2 0 10   -0.946  27.666  -0.02402 -2.82635 -1.35511 6.23543 
45 1 2 0 10   -0.940  29.000   0.0146 6.61821 -3.16998 -5.20299 
46 1 2 0 10   -0.963  30.587   0.00846 -1.26136 1.01121 2.16711 
47 1 2 0 10   -3.503  22.406  -0.00285 9.04019 1.63678 -1.90315 
48 1 2 0 10   -4.767  23.156   0.03337 -10.9049 -6.22475 3.50125 
49 1 2 0 10   -6.293  24.122  -0.03052 -0.147436 1.04277 0.0706418 
50 1 2 0 10   -7.252  25.538   0.00911 7.28872 5.86221 -7.97339 
51 1 2 0 10   -3.474  10.141   0.00517 5.79079 -2.83885 10.7752 
52 1 2 0 10   -5.358   9.991   0.00757 0.495872 0.703644 -1.13275 
53 1 2 0 10   -8.076   9.855   0.00775 -7.94552 3.64379 7.43138 
54 1 2 0 10  -11.016   9.783  -0.0542 8.13567 -7.48 -9.56988 
55 1 3 0 50  -14.611   9.283   0.02245 15.0003 -10.3381 3.76151 
56 1 2 0 10  -13.927  11.633   0.12647 -2.18754 -1.00885 -4.84269 
57 1 2 0 10  -14.531  13.439   0.07131 7.50997 4.20456 -3.84509 
58 1 2 0 10  -15.026  14.758   0.0218 -8.05936 -4.176 4.11721 
59 1 2 0 10  -15.552  16.410  -0.0383 1.03477 1.93723 -1.63772 
60 1 2 0 10  -16.620  17.694   0.01026 -0.154123 0.35062 0.375937 
61 1 2 0 10  -16.413  11.050  -0.4408 -0.237237 11.1215 12.2714 
62 1 2 0 10  -18.418  11.393  -0.1686 1.41983 -3.83773 -8.9454 
63 1 2 0 10  -19.890  11.540  -0.0389 1.25525 7.94029 4.90739 
64 1 2 0 10  -21.713  11.785   0.00185 -3.62005 -13.4186 -4.29076 
65 1 2 0 10  -23.426  12.087  -0.0074 0.807958 5.40506 2.31111 
66 1 2 0 10  -15.604   7.258  -0.53413 -13.3696 2.37761 -6.68737 
67 1 2 0 10  -17.315   6.396  -0.09121 -2.34963 1.71179 -4.14751 
68 1 2 0 10  -19.088   6.199  -0.07785 6.40279 -9.65594 3.57098 
69 1 2 0 10  -20.420   6.136  -0.03409 2.24717 5.04819 3.63218 
70 1 2 0 10  -22.005   6.035   0.01328 -3.46204 0.066578 -3.10314 
71 1 2 0 10  -13.125   7.180   0.11247 -7.03032 11.2016 10.6173 
72 1 2 0 10  -12.473   5.652   0.08833 3.70685 -12.0347 -7.77835 
73 1 2 0 10  -11.861   4.182  -0.007 -3.61396 12.2357 4.86655 
74 1 2 0 10  -11.704   2.390  -0.0203 3.87133 -3.76145 0.618899 
75 1 2 0 10  -11.906   0.719   0.01165 -2.59538 1.06397 -0.87186 
76 1 2 0 10    0.804  -3.207   0.00838 -9.21225 10.1929 -3.20378 
77 1 2 0 10    0.813  -4.666   0.02235 -3.70474 8.74094 3.34506 
78 1 2 0 10    0.835  -6.429  -0.00523 4.91844 -6.20349 -2.64967 
79 1 2 0 10    0.780  -7.792  -0.02072 -3.21381 5.6707 0.539145 
80 1 2 0 10    0.652  -9.404   0.01006 1.83964 -2.31069 1.41601 
81 1 2 0 10    3.557  -1.253  -0.0042 2.18198 0.306903 -5.45257 
82 1 2 0 10    5.159  -1.605  -0.00177 -2.00575 -1.16764 2.33222 
83 1 2 0 10    7.082  -2.163  -0.0156 -3.4023 0.986193 -2.23953 
84 1 2 0 10    8.461  -2.661   0.02533 3.46273 0.290131 -3.46257 
85 1 2 0 10   10.046  -3.312  -0.01274 -0.0192081 0.0902874 2.96385 
86 1 2 0 10   -1.668  -1.558  -0.00388 2.11393 3.31363 2.50763 
87 1 2 0 10   -3.569  -2.576  -0.00389 1.84719 -0.186593 -0.202685 
88 1 2 0 10   -4.850  -3.440   0.00046 -0.875358 -8.27127 -0.652767 
89 1 2 0 10   -6.328  -4.628   0.00096 4.01388 11.2224 1.20293 
90 1 2 0 10   -7.125  -6.197   0.00066 -2.96191 -5.00343 -1.67486 
91 1 2 0 10   14.350  15.128  -0.51411 18.1191 -1.6215 8.30918 
92 1 2 0 10   16.435  15.770  -0.0895 -13.4381 5.73504 -8.74129 
93 1 2 0 10   18.503  16.107  -0.06476 -3.53379 -3.37817 0.520685 
94 1 2 0 10   20.409  16.473   0.0288 7.45878 3.89971 1.71769 
95 1 2 0 10   22.140  16.664  -0.0161 -1.68401 -2.83968 -0.363514 
96 1 2 0 10  -17.047   8.848   0.77148 -2.46222 -9.70223 2.73853 
97 1 2 0 10  -19.121   8.848   0.17902 10.7851 14.6871 -11.6197 
98 1 2 0 10  -21.146   8.906   0.05968 -14.2871 -11.6309 11.1151 
99 1 2 0 10  -23.017   9.061  -0.0229 7.63186 6.16389 -5.08259 
100 1 2 0 10 -24.712   9.242   0.03134 -2.1836 -2.21972 1.56214 
101 1 2 0 10  -8.032  27.129   0.00962 -4.08975 -3.41654 4.83531 
