LAMMPS data file via GBCG Mapping, version 1 2018-09-10

5 atoms
3 atom types
4 bonds
2 bond types
6 angles
3 angle types
0 dihedrals
0 dihedral types

33.1975387838 55.1313580527 xlo xhi
32.7225016374 53.3362899331 ylo yhi
13.7365286086 39.9848007566 zlo zhi

Masses

1   340.0000
2   240.0000
3    50.0000

Pair Coeffs

1         0.1000     8.8411
2         0.1000     7.9986
3         0.1000     2.5000

Bond Coeffs

1  100.000   12.626
2  100.000   14.906

Angle Coeffs

1 25.0    74.5477
2 25.0   178.6511
3 25.0     6.4970

Dihedral Coeffs


Atoms

1 1 2    0.000         0.82212        -1.87292        -0.00017 0 0 0
2 1 3    0.000        -0.20100        10.61300         0.00280 0 0 0
3 1 1    0.000        13.31671        14.82603        -0.00276 0 0 0
4 1 2    0.000        -0.94142        23.31629         0.00072 0 0 0
5 1 1    0.000       -15.79526         9.26547         0.00282 0 0 0

Bonds

1 1 1 2
2 1 2 4
3 2 2 3
4 2 2 5

Angles

1 1 1 2 3
2 2 1 2 4
3 1 1 2 5
4 1 3 2 4
5 1 4 2 5
6 3 3 2 5
