LAMMPS data file via write_data, version 17 Nov 2016, timestep = 101

5501 atoms
68 atom types
5587 bonds
115 bond types
10088 angles
243 angle types
15497 dihedrals
453 dihedral types
831 impropers
19 improper types

-2.7500000000000000e+01 2.7500000000000000e+01 xlo xhi
-3.8500000000000000e+01 3.8500000000000000e+01 ylo yhi
-3.6381278816150001e+01 3.6378178816149997e+01 zlo zhi

Masses

1 1.008
2 1.008
3 1.008
4 1.008
5 1.008
6 1.008
7 1.008
8 1.008
9 1.008
10 12.011
11 12.011
12 12.011
13 12.011
14 12.011
15 12.011
16 12.011
17 12.011
18 12.011
19 12.011
20 12.011
21 12.011
22 12.011
23 14.007
24 14.007
25 14.007
26 14.007
27 14.007
28 14.007
29 14.007
30 15.999
31 15.999
32 15.999
33 15.9994
34 32.06
35 32.06
36 1.008
37 1.008
38 1.008
39 1.008
40 1.008
41 12.011
42 12.011
43 12.011
44 12.011
45 12.011
46 12.011
47 14.007
48 15.9994
49 15.9994
50 15.9994
51 30.974
52 35.45
53 22.9898
54 1.008
55 1.008
56 1.008
57 14.007
58 12.011
59 12.011
60 12.011
61 12.011
62 12.011
63 12.011
64 12.011
65 12.011
66 12.011
67 12.011
68 12.011

Pair Coeffs # lj/charmm/coul/long

1 0.046 0.400014 0.046 0.400014
2 0.046 0.400014 0.046 0.400014
3 0.022 2.35197 0.022 2.35197
4 0.046 0.400014 0.046 0.400014
5 0.03 2.42004 0.03 2.42004
6 0.022 2.35197 0.022 2.35197
7 0.046 1.60362 0.046 1.60362
8 0.046 1.24726 0.046 1.24726
9 0.1 0.801809 0.1 0.801809
10 0.11 3.56359 0.11 3.56359
11 0.07 3.55005 0.07 3.55005
12 0.02 4.05359 0.01 3.38542
13 0.055 3.87541 0.01 3.38542
14 0.08 3.6705 0.01 3.38542
15 0.05 3.20723 0.05 3.20723
16 0.05 3.20723 0.05 3.20723
17 0.09 3.20723 0.09 3.38542
18 0.07 3.55005 0.07 3.55005
19 0.02 4.05359 0.01 3.38542
20 0.055 3.87541 0.01 3.38542
21 0.055 3.87541 0.01 3.38542
22 0.07 3.56359 0.07 3.56359
23 0.2 3.29632 0.0001 3.29632
24 0.2 3.29632 0.2 3.29632
25 0.2 3.29632 0.2 2.76179
26 0.2 3.29632 0.2 3.29632
27 0.2 3.29632 0.2 3.29632
28 0.2 3.29632 0.2 3.29632
29 0.2 3.29632 0.2 3.29632
30 0.12 3.02906 0.12 2.49452
31 0.12 3.02906 0.12 3.02906
32 0.1521 3.15378 0.1521 3.15378
33 0.1521 3.15057 0.1521 3.15057
34 0.45 3.56359 0.45 3.56359
35 0.38 3.51905 0.38 3.51905
36 0.046 1.24726 0.046 1.24726
37 0.022 2.35197 0.022 2.35197
38 0.028 2.38761 0.028 2.38761
39 0.024 2.38761 0.024 2.38761
40 0.031 2.22725 0.031 2.22725
41 0.07 3.56359 0.07 3.56359
42 0.02 4.05359 0.01 3.38542
43 0.056 3.58141 0.01 3.38542
44 0.078 3.63487 0.01 3.38542
45 0.08 3.6705 0.01 3.38542
46 0.068 3.72396 0.068 3.72396
47 0.2 3.29632 0.2 3.29632
48 0.12 3.02906 0.12 2.49452
49 0.1521 3.15378 0.1521 3.15378
50 0.12 3.02906 0.12 3.02906
51 0.585 3.83086 0.585 3.83086
52 0.15 4.04468 0.15 4.04468
53 0.0469 2.42993 0.0469 2.42993
54 0.046 1.55016 0.046 1.55016
55 0.0078 1.55016 0.0078 1.55016
56 0.046 0.400014 0.046 0.400014
57 0.2 3.47451 0.2 3.47451
58 0.11 3.74178 0.11 3.74178
59 0.11 3.74178 0.11 3.74178
60 0.11 3.74178 0.11 3.74178
61 0.11 3.74178 0.11 3.74178
62 0.11 3.74178 0.11 3.74178
63 0.11 3.74178 0.11 3.74178
64 0.11 3.74178 0.11 3.74178
65 0.11 3.74178 0.11 3.74178
66 0.11 3.74178 0.11 3.74178
67 0.11 3.74178 0.11 3.74178
68 0.11 3.74178 0.11 3.74178

Bond Coeffs # harmonic

1 250 1.49
2 250 1.49
3 250 1.49
4 260 1.3
5 463 1.365
6 370 1.345
7 620 1.23
8 305 1.375
9 305 1.368
10 230 1.49
11 350 1.365
12 340 1.08
13 270 1.37
14 334.3 1.411
15 200 1.522
16 200 1.522
17 430 1.36
18 650 1.23
19 525 1.26
20 440 1.34
21 365 1.502
22 360.5 1.1
23 200 1.522
24 750 1.22
25 150 1.334
26 198 1.818
27 222.5 1.527
28 330 1.08
29 320 1.434
30 222.5 1.537
31 222.5 1.537
32 309 1.111
33 309 1.111
34 320 1.455
35 410 1.36
36 229.63 1.5
37 375 1.083
38 380 1.37
39 333 1.07
40 380 1.32
41 360 1.4
42 350 1.44
43 270 1.375
44 250 1.4439
45 250 1.3462
46 330 1.081
47 250 1.3386
48 330 1.081
49 250 1.4545
50 330 1.081
51 250 1.3455
52 187 1.493
53 400 1.4578
54 330 1.081
55 330 1.081
56 435 1.274
57 250 1.3285
58 187 1.5125
59 187 1.5125
60 250 1.4839
61 187 1.5344
62 250 1.3168
63 330 1.081
64 250 1.4684
65 330 1.081
66 187 1.4909
67 222.5 1.5
68 222.5 1.538
69 222.5 1.538
70 309 1.111
71 330 1.08
72 320 1.43
73 200 1.48
74 428 1.42
75 222.5 1.53
76 222.5 1.528
77 230 1.51
78 309 1.111
79 330 1.08
80 261 1.49
81 290 1.43
82 320 1.43
83 200 1.48
84 428 1.42
85 198 1.818
86 214 1.816
87 222.5 1.53
88 322 1.111
89 240 1.816
90 222.5 1.538
91 309 1.111
92 340 1.43
93 222.5 1.53
94 222.5 1.528
95 309 1.111
96 300 1.08
97 215 1.51
98 340 1.43
99 322 1.111
100 300 1.08
101 215 1.51
102 440 0.997
103 480 1
104 453 1
105 465 0.976
106 545 0.96
107 455 1
108 403 1.04
109 440 1.013
110 275 1.325
111 0 1.5139
112 450 0.9572
113 580 1.48
114 270 1.6
115 173 2.029

Angle Coeffs # charmm

1 52 112.3 0 0
2 50 112 0 0
3 50 108.2 0 0
4 52 108 0 0
5 52 108 0 0
6 52 108 0 0
7 50 109.5 0 0
8 50 107 0 0
9 43.7 110 0 0
10 50 109.5 0 0
11 50 107 0 0
12 60 117 0 0
13 60 117 0 0
14 62.3 120 0 0
15 49 120 0 0
16 50 120 0 0
17 50 120 0 0
18 34 123 0 0
19 40 120 35 2.4162
20 60 118 0 0
21 45.8 122.3 0 0
22 30 120 22 2.1525
23 45.2 120 0 0
24 60 122 0 0
25 160 130.6 0 0
26 160 130.6 0 0
27 51.8 107.5 0 0
28 49.3 107.5 0 0
29 120 107.4 25 2.261
30 45.8 129.4 0 0
31 110 108 0 0
32 28 126 0 0
33 65 108 0 0
34 52 108 0 0
35 50 109.5 0 0
36 50 107 0 0
37 52 108 0 0
38 52 108 0 0
39 33 109.5 30 2.163
40 50 120 0 0
41 48 123.5 0 0
42 52 119.5 0 0
43 32 112.2 0 0
44 45 111.5 0 0
45 52 108 0 0
46 33 109.5 30 2.163
47 40 109.6 30 2.2651
48 40 109.6 30 2.2651
49 40 109.6 30 2.2651
50 20 112.5 0 0
51 80 116.5 0 0
52 80 118 0 0
53 70 108.5 0 0
54 33.43 110.1 22.53 2.179
55 100 114.2 0 0
56 35 118 0 0
57 70 110.8 0 0
58 70 108.5 0 0
59 26.5 110.1 22.53 2.179
60 26.5 110.1 22.53 2.179
61 70 110.5 0 0
62 26.5 110.1 22.53 2.179
63 45.8 130 0 0
64 22 130 15 2.215
65 145 108 0 0
66 58.35 113 0 0
67 33.43 109.5 0 0
68 145 108 0 0
69 25 126 15 2.13
70 25 126 15 2.09
71 30 122 22 2.146
72 110 107.4 0 0
73 110 107.4 0 0
74 45.8 124 0 0
75 28 126 0 0
76 95 123.56 0 0
77 41 118.22 0 0
78 95 118.36 0 0
79 45.8 123.28 0 0
80 95 127.21 0 0
81 41 116.39 0 0
82 95 125.99 0 0
83 41 117 0 0
84 41 118.22 0 0
85 95 118.23 0 0
86 45.8 118.28 0 0
87 41 117 0 0
88 95 125.86 0 0
89 70 117.07 0 0
90 49.3 107.5 0 0
91 45.8 123.45 0 0
92 50 118.41 0 0
93 70 123.78 0 0
94 50 117.07 0 0
95 50 124.72 0 0
96 58 118.1 0 0
97 60 122.55 0 0
98 45.8 122.4 0 0
99 51.8 115.15 0 0
100 49.3 107.5 0 0
101 49.3 107.5 0 0
102 45.8 123.06 0 0
103 45.8 123.06 0 0
104 95 124.43 0 0
105 41 117.78 0 0
106 51.8 110.25 0 0
107 51.8 110.25 0 0
108 45.8 115.04 0 0
109 95 126.46 0 0
110 41 116.77 0 0
111 41 117.78 0 0
112 45.8 118.37 0 0
113 41 116.39 0 0
114 41 116.77 0 0
115 49.3 107.5 0 0
116 20 112.5 0 0
117 80 116.5 0 0
118 80 121 0 0
119 40 118 50 2.388
120 53.35 111 8 2.561
121 53.35 108.5 8 2.561
122 34.5 110.1 22.53 2.179
123 35 111 0 0
124 70 113.5 0 0
125 75.7 110.1 0 0
126 58.35 113.5 11.16 2.561
127 58.35 113.5 11.16 2.561
128 58.35 113.5 11.16 2.561
129 58.35 114 0 0
130 33.43 110.1 22.53 2.179
131 75.7 110.1 0 0
132 58 112.5 0 0
133 58 112.5 0 0
134 33.43 110.1 22.53 2.179
135 35 117 0 0
136 30 109.5 20 2.074
137 57.5 106 0 0
138 20 112.5 0 0
139 80 116.5 0 0
140 80 121 0 0
141 50 116.5 50 2.45
142 15 121 50 2.44
143 40 118 50 2.388
144 45.8 122 0 0
145 51.1 113.09 0 0
146 53.35 114 8 2.561
147 34.5 110.1 22.53 2.179
148 35 111 0 0
149 70 113.5 0 0
150 67.7 110 0 0
151 58.35 113.6 11.16 2.561
152 58 115 8 2.561
153 26.5 110.1 22.53 2.179
154 67.7 107.5 0 0
155 70 113.5 0 0
156 67.7 110 0 0
157 58 114.5 0 0
158 58.35 113.5 0 0
159 34.6 110.1 22.53 2.179
160 40.4 120 0 0
161 35 117.18 0 0
162 35 117 0 0
163 30 109.5 20 2.074
164 57.5 106 0 0
165 34 95 0 0
166 38.8 95 0 0
167 72.5 103.3 0 0
168 53.35 114 8 2.561
169 34.5 110.1 22.53 2.179
170 35 111 0 0
171 70 113.5 0 0
172 75.7 110.1 0 0
173 34.6 110.1 22.53 2.179
174 58.35 113.5 0 0
175 37.5 110.1 22.53 2.179
176 26.5 110.1 22.53 2.179
177 75.7 110.1 0 0
178 40 116 0 0
179 70 125 20 2.442
180 55 109 20 2.326
181 58 112.5 0 0
182 58.35 113.5 11.16 2.561
183 34.5 110.1 22.53 2.179
184 75.7 110.1 0 0
185 58.35 113.6 11.16 2.561
186 58 115 8 2.561
187 26.5 110.1 22.53 2.179
188 33.43 110.1 22.53 2.179
189 67.7 115 0 0
190 75.7 110.1 0 0
191 34.6 110.1 22.53 2.179
192 60 109.5 26 2.466
193 20 120 35 2.33
194 34.6 110.1 22.53 2.179
195 60 109.5 26 2.466
196 32 125 25 2.173
197 120 110 25 2.24
198 33.43 109.5 0 0
199 23 120 0 0
200 35.5 109 5.4 1.802
201 35.5 109 5.4 1.802
202 48 108 0 0
203 45.9 108.89 0 0
204 35.5 109 5.4 1.802
205 51.5 107.5 0 0
206 51.5 109.5 0 0
207 45 107.5 35 2.101
208 45.9 108.89 0 0
209 46.1 111.3 0 0
210 38 111 0 0
211 35.5 108.4 5.4 1.802
212 46.1 111.3 0 0
213 60 109.5 0 0
214 35.5 109 5.4 1.802
215 60 109.5 0 0
216 35.5 108.4 5.4 1.802
217 48 112 0 0
218 48 108 0 0
219 51.5 107.5 0 0
220 36 115 0 0
221 48 108 0 0
222 25 120 0 0
223 44 109.5 0 0
224 24 109.5 28 1.767
225 40 109.5 27 2.13
226 24 109.5 28 1.767
227 40 109.5 27 2.13
228 32 125 25 2.177
229 50 117.3 0 0
230 22 122 15 2.18
231 32 126 25 2.14
232 55 104.52 0 0
233 80 122.5 0 0
234 52 120 90 2.3642
235 80 122.5 0 0
236 75 122.5 50 2.37
237 145 108 0 0
238 120 120 0 0
239 98.9 111.6 0 0
240 90 125.9 160 2.2576
241 90 125.9 160 2.2576
242 100 124 70 2.225
243 80 104.3 0 0

Dihedral Coeffs # charmm

1 0.14 3 0 1
2 0.14 3 0 1
3 0.8 3 0 1
4 0.1 3 0 1
5 0.2 3 0 1
6 0.2 3 0 1
7 0.2 3 0 1
8 0.2 3 0 1
9 0.04 3 0 1
10 0.2 3 0 1
11 0.2 3 0 1
12 0.2 3 0 1
13 0.2 3 0 1
14 0.2 3 0 1
15 0.2 3 0 1
16 0.2 3 0 1
17 0.2 3 0 1
18 0.2 3 0 1
19 0.2 3 0 1
20 0.2 1 180 1
21 0 1 0 1
22 0.1 3 0 1
23 0.2 1 180 1
24 0 1 0 1
25 0.8 3 0 1
26 0.8 3 0 1
27 0 3 180 1
28 0 3 180 1
29 0 6 180 1
30 0 6 180 1
31 0.2 1 180 1
32 1.8 1 0 1
33 1.8 1 0 1
34 1.8 1 0 1
35 0 1 0 1
36 0 1 0 1
37 3.1 2 180 0.5
38 3.1 2 180 0.5
39 3.1 2 180 1
40 4.2 2 180 1
41 3.1 2 180 1
42 3.1 2 180 0.5
43 3 2 180 1
44 2.8 2 180 1
45 0.23 2 180 1
46 0 6 0 1
47 0.99 2 180 1
48 3.1 2 180 0.5
49 10 2 180 1
50 10 2 180 1
51 3 2 180 1
52 3 2 180 1
53 3 2 180 1
54 0.8 2 180 1
55 0.2 3 0 1
56 0.2 3 0 1
57 4 2 180 0
58 0.23 2 180 1
59 0.25 2 180 1
60 5 2 180 0
61 0.2 3 0 1
62 0 1 0 1
63 0.2 3 0 1
64 0.2 3 0 1
65 0.195 3 0 1
66 0.195 3 0 1
67 0.4 3 0 1
68 0.03 3 0 1
69 0.19 3 0 1
70 0.19 3 0 1
71 0.19 3 0 1
72 0.19 3 0 1
73 0.7 1 180 1
74 0 3 0 1
75 0 3 0 1
76 0 3 0 1
77 0.28 3 0 1
78 2.75 2 180 1
79 0.3 4 0 0
80 2.75 2 180 1
81 0.3 4 0 0
82 1.6 1 0 1
83 2.5 2 180 0
84 2.5 2 180 1
85 0.16 3 0 0
86 0.16 3 0 1
87 2.75 2 180 1
88 0.3 4 0 0
89 2.75 2 180 1
90 0.3 4 0 0
91 2.75 2 180 1
92 0.3 4 0 0
93 0.1 3 0 0
94 0.1 3 0 1
95 0.4 1 0 1
96 0.6 2 0 0
97 0.4 1 0 1
98 0.6 2 0 0
99 0.4 1 180 1
100 0.6 2 0 0
101 0.1 3 0 0
102 0.14 3 0 1
103 0.14 3 0 0
104 0.14 3 0 1
105 0.14 3 0 0
106 0.16 3 0 1
107 2.75 2 180 1
108 0.3 4 0 0
109 2.75 2 180 1
110 0.3 4 0 0
111 2.75 2 180 1
112 0.3 4 0 0
113 0.1 3 0 1
114 0.2 1 0 1
115 0.27 2 0 0
116 0 3 0 0
117 0 3 0 1
118 12 2 180 0
119 1.4 2 180 1
120 0.2 3 0 1
121 0.2 3 0 1
122 3 2 180 1
123 12 2 180 0
124 2.5 2 180 1
125 2.5 2 180 1
126 3 2 180 1
127 3 2 180 1
128 3 2 180 1
129 0.8 2 180 1
130 2 2 180 1
131 4 2 180 0
132 0.23 2 180 1
133 0.25 2 180 1
134 5 2 180 0
135 2 2 180 1
136 8 2 180 1
137 8 2 180 1
138 0.16 1 0 1
139 2.2318 2 180 0
140 1.1324 3 0 0
141 0.3006 4 0 0
142 0 3 0 1
143 0.167 3 180 1
144 8 2 180 1
145 8 2 180 1
146 0.16 1 0 1
147 2.2318 2 180 0
148 1.1324 3 0 0
149 0.3006 4 0 0
150 0 3 0 1
151 0.16 1 0 1
152 2.2318 2 180 0
153 1.1324 3 0 0
154 0.3006 4 0 0
155 0 3 0 1
156 8 2 180 1
157 8 2 180 1
158 0 3 0 1
159 8 2 180 1
160 0 3 0 1
161 1.504 1 180 1
162 5.301 2 180 0
163 0.916 3 0 0
164 0.401 4 0 0
165 0 3 0 1
166 0.167 3 180 1
167 8 2 180 1
168 8 2 180 1
169 8 2 180 1
170 0.3 1 0 1
171 0 3 0 1
172 0.16 1 0 1
173 2.2318 2 180 0
174 1.1324 3 0 0
175 0.3006 4 0 0
176 0 3 0 1
177 0 3 0 0.5
178 0 3 0 1
179 0.195 3 0 0.5
180 0.195 3 0 1
181 0 3 0 0.5
182 0 3 0 1
183 0.167 3 180 1
184 8 2 180 1
185 8 2 180 1
186 0.16 3 0 0.5
187 0.16 3 0 1
188 0.155 3 0 1
189 8 2 180 1
190 8 2 180 1
191 0 3 0 1
192 0 3 0 1
193 0 3 0 1
194 0 3 0 1
195 8 2 180 1
196 0 3 0 1
197 0 3 0 1
198 8 2 180 1
199 1.6 1 0 1
200 2.5 2 180 0
201 1.6 1 0 1
202 2.5 2 180 0
203 2.5 2 180 1
204 0 1 0 1
205 0 1 0 1
206 1.4 1 0 1
207 0.2 3 0 1
208 0.2 3 0 1
209 0.2 3 0 1
210 0 1 0 1
211 1.33 1 0 1
212 0.18 2 0 0
213 0.32 3 0 0
214 0.05 6 180 1
215 0.05 6 180 1
216 0.05 6 180 1
217 0.19 3 0 1
218 0.2 3 0 1
219 0.2 3 0 1
220 0.2 3 0 1
221 0.2 3 0 1
222 0.195 3 0 1
223 0.195 3 0 1
224 0.195 3 0 1
225 0.16 3 0 1
226 1.3 1 0 1
227 0.3 2 0 0
228 0.42 3 0 0
229 0.24 1 0 1
230 0.15 2 0 0
231 0.27 3 0 0
232 0.31 3 0 1
233 1.6 1 0 1
234 2.5 2 180 0
235 2.5 2 180 1
236 1.6 1 0 1
237 2.5 2 180 0
238 2.5 2 180 1
239 4.2 2 180 1
240 1.4 2 180 1
241 1 2 180 1
242 2.5 2 180 1
243 3 2 180 1
244 8 2 180 0.5
245 0 3 0 1
246 0 1 0 1
247 0 1 0 1
248 1.4 1 0 1
249 0.2 3 0 1
250 0.2 3 0 1
251 0.2 3 0 1
252 0 1 0 1
253 0.1 3 0 1
254 0.05 6 180 1
255 0.05 6 180 1
256 0.05 6 180 1
257 0 3 0 1
258 0.2 3 0 1
259 0.2 3 0 1
260 0.2 3 0 1
261 0.15 1 0 1
262 0.15 1 0 0.5
263 0.195 3 0 1
264 0.195 3 0 1
265 0.195 3 0 1
266 0.195 3 0 1
267 0.16 3 0 1
268 0 6 180 1
269 0.3 1 0 1
270 0.1 3 0 1
271 0.24 1 180 1
272 0.37 3 0 0
273 0.155 3 0 1
274 1.2 2 180 1
275 3.5 2 180 1
276 2.25 2 180 1
277 8 2 180 1
278 2.5 2 180 1
279 2.05 2 180 1
280 2.05 2 180 1
281 0.28 3 0 1
282 1 1 0 1
283 4.1 2 0 0
284 0.9 3 0 0
285 0 3 0 1
286 8 2 180 1
287 8 2 180 1
288 0 3 0 1
289 0 3 0 1
290 8 2 180 1
291 0 3 0 1
292 0 1 0 1
293 0 1 0 1
294 1.4 1 0 1
295 0.05 6 180 1
296 0.2 3 0 1
297 0.2 3 0 1
298 0.2 3 0 1
299 0.2 3 0 1
300 0.2 3 0 1
301 0 1 0 1
302 1.33 1 0 1
303 0.18 2 0 0
304 0.32 3 0 0
305 0.2 3 0 1
306 0.195 3 0 1
307 0.16 3 0 1
308 0.155 3 0 1
309 0.28 3 0 1
310 0 3 0 1
311 2.05 2 180 1
312 0.965 1 180 1
313 3.85 2 180 0
314 0.13 1 180 1
315 24 2 180 0
316 0.13 1 180 1
317 24 2 180 0
318 2.05 2 180 1
319 0.2 3 0 1
320 0.2 3 0 1
321 0.12 3 0 1
322 0.05 6 180 1
323 -0.15 1 180 1
324 0.53 2 180 0
325 0.1 2 180 1
326 0.15 4 0 0
327 0.1 6 180 0
328 0.1 2 180 1
329 0.15 4 0 0
330 0.1 6 180 0
331 0.19 3 0 1
332 0.16 3 0 1
333 0.26 3 0 1
334 0 3 0 1
335 0.23 3 0 1
336 0.965 1 180 1
337 3.85 2 180 0
338 0.1 3 0 1
339 1.2 1 180 1
340 0.1 2 180 0
341 0.1 3 180 0
342 0.19 3 0 1
343 0.26 3 0 1
344 0.23 3 0 1
345 0.8 2 180 1
346 3 2 180 1
347 5 2 180 0
348 0.2 3 0 1
349 0.2 3 0 1
350 2.5 2 180 1
351 0 1 0 1
352 0 1 0 1
353 1.4 2 180 1
354 3 2 180 1
355 0 2 180 1
356 1.4 2 180 1
357 0.4 2 180 1
358 0.14 3 0 1
359 0.14 3 0 1
360 0.14 3 0 1
361 0.14 3 0 1
362 0.16 3 0 1
363 0.14 3 0 1
364 0.14 3 0 1
365 0.2 3 0 1
366 0.2 3 0 1
367 0.2 3 0 1
368 0.2 3 0 1
369 0 3 180 1
370 0 3 180 1
371 0.05 6 180 1
372 0.19 3 0 1
373 0.2 3 0 1
374 0.2 3 0 1
375 0.2 3 0 1
376 0.195 3 0 1
377 0.195 3 0 1
378 0.195 3 0 1
379 0.195 3 0 1
380 0.01 3 0 1
381 0.16 3 0 1
382 0 6 180 1
383 0 3 0 1
384 0.1 3 0 1
385 0.2 3 0 1
386 0.158 3 0 1
387 0.2 3 0 1
388 0.2 3 0 1
389 0.2 3 0 1
390 0.2 3 0 1
391 0.2 3 0 1
392 0.87 3 0 1
393 0 6 180 1
394 0 6 180 1
395 0.2 3 0 1
396 0.19 3 0 1
397 0.19 3 0 1
398 0.19 3 0 1
399 0.16 3 0 1
400 0 3 0 1
401 0.4 1 180 1
402 0.6 2 0 0
403 0.4 1 180 1
404 0.6 2 0 0
405 0.4 1 0 1
406 0.6 2 0 0
407 0 1 0 1
408 0 1 0 1
409 0 1 0 1
410 0.05 6 180 1
411 0.2 3 0 1
412 0.2 3 0 1
413 0.2 3 0 1
414 0.2 3 0 1
415 0.1 3 0 1
416 0 1 0 1
417 0 1 0 1
418 0 1 0 1
419 2.25 2 180 1
420 8 2 180 1
421 1 2 180 1
422 0.19 3 0 1
423 2.4 2 180 1
424 4.2 2 180 1
425 3 2 180 1
426 0 3 0 1
427 8 2 180 1
428 0 3 0 1
429 0 3 0 1
430 8 2 180 1
431 2.5 2 180 1
432 0.3 1 0 1
433 -0.3 4 0 0
434 0.4 1 0 1
435 0.4 1 0 1
436 0.3 1 0 1
437 -0.3 4 0 0
438 -0.3 4 0 1
439 0.6 1 0 1
440 0.6 1 0 1
441 0.6 1 0 1
442 0 1 0 1
443 0.05 6 180 1
444 0.2 3 0 1
445 0.2 3 0 1
446 0.2 3 0 1
447 0.2 3 0 1
448 0 1 0 1
449 0 1 0 1
450 12 2 180 0
451 3.3 1 180 1
452 -0.4 3 180 0
453 0.2 3 0 1

Improper Coeffs # harmonic

1 120 0
2 120 0
3 120 0
4 120 0
5 120 0
6 120 0
7 40 0
8 96 0
9 45 0
10 96 0
11 45 0
12 100 0
13 100 0
14 0 0
15 1.2 0
16 1.2 0
17 20 0
18 20 0
19 4 0

Atoms # full

14 1 14 -2.2000000000000000e-01 -9.8561533924611275e+00 -1.4614398497584119e+01 -3.0456380244694031e+01 0 0 0
15 1 3 8.9999999999999997e-02 -1.0676268396396949e+01 -1.4225167114167643e+01 -3.1096878281203175e+01 0 0 0
17 1 3 8.9999999999999997e-02 -9.9220587961937383e+00 -1.5702116283399654e+01 -3.0672825337975056e+01 0 0 0
13 1 34 -8.9999999999999997e-02 -8.2759155381448046e+00 -1.3981453236460741e+01 -3.0890393779754699e+01 0 0 0
11 1 3 8.9999999999999997e-02 -9.4489552763322173e+00 -1.1892399182195167e+01 -3.1685033921360183e+01 0 0 0
204 14 1 4.2999999999999999e-01 -8.7605391475341072e+00 -6.9138275926278006e+00 -3.3647532301728667e+01 0 0 0
1 1 27 -2.9999999999999999e-01 -6.6427061512404251e+00 -9.1636472784815659e+00 -3.2395301178989357e+01 0 0 0
2 1 2 3.3000000000000002e-01 -6.6765150675639902e+00 -9.6586415711609241e+00 -3.3309331002995179e+01 0 0 0
3 1 2 3.3000000000000002e-01 -5.7853641835927547e+00 -9.3149632921005470e+00 -3.1826378530902780e+01 0 0 0
4 1 2 3.3000000000000002e-01 -6.8540147469924868e+00 -8.1639735537476525e+00 -3.2589213301340763e+01 0 0 0
5 1 12 2.0999999999999999e-01 -7.7048126526235841e+00 -9.8304300244918075e+00 -3.1501565276576432e+01 0 0 0
6 1 6 1.0000000000000001e-01 -8.6146411506586311e+00 -9.8081734902112210e+00 -3.2083047538430151e+01 0 0 0
7 1 13 -1.7999999999999999e-01 -7.4358952077753599e+00 -1.1364873470389259e+01 -3.1309831218309775e+01 0 0 0
8 1 3 8.9999999999999997e-02 -6.5362644691495042e+00 -1.1584562360228514e+01 -3.0696049808238680e+01 0 0 0
9 1 3 8.9999999999999997e-02 -7.1333913073483934e+00 -1.1857731269175808e+01 -3.2258470902489698e+01 0 0 0
10 1 13 -1.4000000000000001e-01 -8.6582781089943701e+00 -1.2184473379263601e+01 -3.0961258133247604e+01 0 0 0
203 14 32 -6.6000000000000003e-01 -8.2016913337001895e+00 -6.8096994096382630e+00 -3.2873933373673140e+01 0 0 0
64 5 3 8.9999999999999997e-02 1.7899710547045906e+00 -7.4781201893375489e+00 -3.0643151096735526e+01 0 0 0
67 5 31 -7.6000000000000001e-01 2.3397013383922491e+00 -9.8996982266921734e+00 -3.0486245123032457e+01 0 0 0
63 5 3 8.9999999999999997e-02 3.5633236194947457e+00 -7.1284245518279405e+00 -3.0684158415967378e+01 0 0 0
202 14 3 8.9999999999999997e-02 -9.4602603591228771e+00 -6.2318918807293215e+00 -3.1267778615893761e+01 0 0 0
201 14 3 8.9999999999999997e-02 -9.5069715303178306e+00 -5.1296748762585125e+00 -3.2595920748437123e+01 0 0 0
47 4 32 -6.6000000000000003e-01 -3.6938546164405004e+00 -4.5578524952862267e+00 -3.0839561758950953e+01 0 0 0
48 4 1 4.2999999999999999e-01 -4.3932134325537220e+00 -4.2124613657938710e+00 -3.0279913035332484e+01 0 0 0
185 13 5 1.1500000000000000e-01 -7.4237914019113163e+00 -9.5595801084851928e-01 -3.0778490979761674e+01 0 0 0
198 14 12 7.0000000000000007e-02 -7.7495874385184820e+00 -4.9806209074771104e+00 -3.1423088592187842e+01 0 0 0
199 14 6 8.9999999999999997e-02 -6.8058734874474673e+00 -5.5044535263969436e+00 -3.1385625567030633e+01 0 0 0
200 14 13 5.0000000000000003e-02 -8.8111406129127587e+00 -5.8162108194404567e+00 -3.2067893316474063e+01 0 0 0
205 14 10 5.1000000000000001e-01 -7.4116208910093953e+00 -3.7988939665588006e+00 -3.2341311477022735e+01 0 0 0
206 14 30 -5.1000000000000001e-01 -8.0501757488223262e+00 -2.7416954276456806e+00 -3.2320506894012702e+01 0 0 0
207 15 25 -4.6999999999999997e-01 -6.3105769686633408e+00 -3.8523467233837820e+00 -3.3055860644389497e+01 0 0 0
208 15 1 3.1000000000000000e-01 -5.6608302741182932e+00 -4.6004743335063125e+00 -3.2945663175791942e+01 0 0 0
209 15 12 7.0000000000000007e-02 -5.9445876312335457e+00 -3.1017158109307701e+00 -3.4183157109265537e+01 0 0 0
210 15 6 8.9999999999999997e-02 -6.4914111804475105e+00 -2.1725658727237231e+00 -3.4119403633731814e+01 0 0 0
211 15 13 -1.7999999999999999e-01 -4.4297406953478671e+00 -2.7405720290356257e+00 -3.4162899735866183e+01 0 0 0
212 15 3 8.9999999999999997e-02 -3.8081673224770185e+00 -3.5096404715552012e+00 -3.4669363410671259e+01 0 0 0
213 15 3 8.9999999999999997e-02 -4.0506513928411856e+00 -2.6721796786987539e+00 -3.3120809932150472e+01 0 0 0
214 15 22 5.5000000000000004e-01 -4.1396330551892682e+00 -1.4144345634916320e+00 -3.4761879976524938e+01 0 0 0
215 15 30 -5.5000000000000004e-01 -4.7720373881799745e+00 -3.2965971645603531e-01 -3.4607597322541899e+01 0 0 0
219 15 10 5.1000000000000001e-01 -6.4597952048578335e+00 -3.7068415485827870e+00 -3.5533144979370434e+01 0 0 0
220 15 30 -5.1000000000000001e-01 -5.8568674388878073e+00 -4.6445566838579069e+00 -3.6024810431397668e+01 0 0 0
221 16 25 -4.6999999999999997e-01 -7.5649648034828978e+00 -3.2169142437475315e+00 -3.5986659235171878e+01 0 0 0
222 16 1 3.1000000000000000e-01 -8.0272745850019298e+00 -2.6061767331973300e+00 -3.5348470885177690e+01 0 0 0
290 20 14 -2.7000000000000002e-01 -4.3374254297399091e+00 -3.3883671307443564e-01 -3.0529134904024438e+01 0 0 0
293 20 3 8.9999999999999997e-02 -5.0654511095150134e+00 -4.9221434563837363e-01 -3.1354232064156875e+01 0 0 0
218 15 1 2.9999999999999999e-01 -2.2332734776608021e+00 -1.9790010626772059e+00 -3.5344768338858330e+01 0 0 0
217 15 1 3.2000000000000001e-01 -2.7858547346462146e+00 -4.9642844412029064e-01 -3.5961509754249519e+01 0 0 0
216 15 26 -6.2000000000000000e-01 -3.0036954167310448e+00 -1.3650013585453351e+00 -3.5516392737030117e+01 0 0 0
49 4 14 -2.7000000000000002e-01 -1.4852742419719256e+00 -3.7227528183001439e+00 -3.1382379808620314e+01 0 0 0
50 4 3 8.9999999999999997e-02 -1.9042844978212550e+00 -2.8432851106577530e+00 -3.1916507493335978e+01 0 0 0
51 4 3 8.9999999999999997e-02 -1.3030011718406627e+00 -4.5999497695668055e+00 -3.2039365289505717e+01 0 0 0
52 4 3 8.9999999999999997e-02 -5.5321235510596267e-01 -3.2198118729551126e+00 -3.1046769941371846e+01 0 0 0
285 20 3 8.9999999999999997e-02 -2.7643631808664928e+00 -2.2035696725140497e-01 -3.1938992051431811e+01 0 0 0
186 13 11 -1.1500000000000000e-01 -9.2519699114995078e+00 1.6139905756064366e-01 -3.0872067692663240e+01 0 0 0
187 13 5 1.1500000000000000e-01 -9.3153228850677436e+00 1.8108652041776452e-01 -3.1950036317400667e+01 0 0 0
189 13 5 1.1500000000000000e-01 -1.1034120667185871e+01 1.3799203116778358e+00 -3.0761400801222337e+01 0 0 0
262 18 10 5.1000000000000001e-01 -4.1856288923447060e+00 2.8322017807657787e+00 -3.5843874934265237e+01 0 0 0
264 19 25 -4.6999999999999997e-01 -5.1072178851275396e+00 2.4494632467248394e+00 -3.4955534791247736e+01 0 0 0
265 19 1 3.1000000000000000e-01 -5.3703463504026558e+00 1.4910450947400022e+00 -3.4876749332961779e+01 0 0 0
266 19 12 7.0000000000000007e-02 -5.6813443292044390e+00 3.3016106157533400e+00 -3.3874895675536933e+01 0 0 0
267 19 6 8.9999999999999997e-02 -5.4565167891377868e+00 4.3188758132793836e+00 -3.4159545108335692e+01 0 0 0
268 19 12 -8.9999999999999997e-02 -7.1939222132204996e+00 3.2897356864219063e+00 -3.3658604876219677e+01 0 0 0
269 19 3 8.9999999999999997e-02 -7.7682235253548342e+00 3.1086713761721256e+00 -3.4592268606630398e+01 0 0 0
270 19 14 -2.7000000000000002e-01 -7.6157332320200055e+00 2.2311822767094611e+00 -3.2600161033578011e+01 0 0 0
271 19 3 8.9999999999999997e-02 -7.5108117543032442e+00 1.2579106483054474e+00 -3.3125573997177113e+01 0 0 0
272 19 3 8.9999999999999997e-02 -8.7197547170841787e+00 2.2477480304527120e+00 -3.2476940097273705e+01 0 0 0
273 19 3 8.9999999999999997e-02 -7.0616966240684604e+00 2.3026192177034019e+00 -3.1639809069436051e+01 0 0 0
274 19 14 -2.7000000000000002e-01 -7.5275581129171911e+00 4.7270559886033894e+00 -3.3181369724600998e+01 0 0 0
275 19 3 8.9999999999999997e-02 -7.4434916157818094e+00 5.4388738839059982e+00 -3.4030239661205613e+01 0 0 0
276 19 3 8.9999999999999997e-02 -6.7137257220223141e+00 5.0176334076901838e+00 -3.2483107199922429e+01 0 0 0
277 19 3 8.9999999999999997e-02 -8.5855791875117049e+00 4.7665972744297704e+00 -3.2844693650304478e+01 0 0 0
278 19 10 5.1000000000000001e-01 -4.6905559651658209e+00 3.1602108558246798e+00 -3.2642684905949551e+01 0 0 0
279 19 30 -5.1000000000000001e-01 -4.2360831319678169e+00 4.1265455786663310e+00 -3.2061328730119747e+01 0 0 0
280 20 25 -4.6999999999999997e-01 -4.2076738696863458e+00 1.9162927539602634e+00 -3.2280808104287047e+01 0 0 0
281 20 1 3.1000000000000000e-01 -4.5399699077746725e+00 1.0992347868608334e+00 -3.2745574716607869e+01 0 0 0
283 20 6 8.9999999999999997e-02 -3.5123882222575808e+00 2.1676462600263093e+00 -3.0389262911407897e+01 0 0 0
263 18 30 -5.1000000000000001e-01 -3.5316456505644780e+00 3.8485784418507905e+00 -3.5646376647037727e+01 0 0 0
282 20 12 7.0000000000000007e-02 -3.1365743255042489e+00 1.7232642429266889e+00 -3.1299043489563285e+01 0 0 0
447 30 3 8.9999999999999997e-02 -8.4788384984157474e+00 6.2657477041029352e+00 -3.0602762958990027e+01 0 0 0
284 20 12 -8.9999999999999997e-02 -2.9395186562560909e+00 2.8612127838607648e-01 -3.0965783259799618e+01 0 0 0
294 20 10 5.1000000000000001e-01 -1.8869749109677549e+00 2.4044904389395114e+00 -3.1654521879685610e+01 0 0 0
295 20 30 -5.1000000000000001e-01 -1.2515474375711761e+00 2.2823923797328760e+00 -3.2720193083194694e+01 0 0 0
296 21 25 -4.6999999999999997e-01 -1.4204164013184801e+00 3.2646074998029988e+00 -3.0748586914526406e+01 0 0 0
298 21 12 7.0000000000000007e-02 -1.7857397577913403e-01 3.8351312549869760e+00 -3.0778600036089042e+01 0 0 0
299 21 6 8.9999999999999997e-02 4.7977756501975222e-01 3.3017079079524407e+00 -3.1448256390457836e+01 0 0 0
300 21 13 -1.7999999999999999e-01 -5.2116988388905838e-01 5.2125620048956520e+00 -3.1306319248650681e+01 0 0 0
301 21 3 8.9999999999999997e-02 3.0388373541598668e-01 5.9177315312761039e+00 -3.1068949727240053e+01 0 0 0
303 21 13 -1.7999999999999999e-01 -8.4780720576490154e-01 5.4641458219071382e+00 -3.2756116726368951e+01 0 0 0
305 21 3 8.9999999999999997e-02 -1.7547658502373586e+00 4.8962434494170850e+00 -3.3054839477903975e+01 0 0 0
306 21 13 2.0000000000000001e-01 3.1805785662519526e-01 5.3286899668264169e+00 -3.3741218205384385e+01 0 0 0
307 21 3 8.9999999999999997e-02 1.3362914742525902e+00 5.5136494467616046e+00 -3.3337097266573025e+01 0 0 0
308 21 3 8.9999999999999997e-02 1.2258859353748619e-01 6.0548963795773361e+00 -3.4558987735532874e+01 0 0 0
309 21 28 -6.9999999999999996e-01 3.2746781170616401e-01 3.9694732914949498e+00 -3.4292076314981706e+01 0 0 0
310 21 2 4.4000000000000000e-01 -1.6699679848505511e-01 3.2320697916275734e+00 -3.3831919795200889e+01 0 0 0
311 21 10 6.4000000000000001e-01 1.0270328872068148e+00 3.6052330205624230e+00 -3.5391818865808226e+01 0 0 0
312 21 28 -8.0000000000000004e-01 1.8590304936211943e+00 4.3688370944181827e+00 -3.6037621877503028e+01 0 0 0
313 21 2 4.6000000000000002e-01 2.1897429916390294e+00 5.2650377895953326e+00 -3.5741894323989776e+01 0 0 0
315 21 28 -8.0000000000000004e-01 8.3841784850049805e-01 2.3462755191534441e+00 -3.5800642401470590e+01 0 0 0
316 21 2 4.6000000000000002e-01 1.2586843556202254e-01 1.7439787199470587e+00 -3.5440762128435971e+01 0 0 0
302 21 3 8.9999999999999997e-02 -1.3746478061984320e+00 5.5656752832771019e+00 -3.0688894048103311e+01 0 0 0
304 21 3 8.9999999999999997e-02 -1.0922371577707075e+00 6.5475515248896912e+00 -3.2727697592324859e+01 0 0 0
375 25 22 6.2000000000000000e-01 5.5834670050495703e+00 9.0231624334486540e+00 -3.1230354613327467e+01 0 0 0
376 25 31 -7.6000000000000001e-01 6.6268499497966076e+00 9.2714306099101975e+00 -3.1920592593905052e+01 0 0 0
377 25 31 -7.6000000000000001e-01 4.7089903074413542e+00 8.2008037644550740e+00 -3.1663822230454592e+01 0 0 0
5324 335 3 8.9999999999999997e-02 6.7635444047585764e+00 9.3276703444886948e+00 -3.5616503926943857e+01 0 0 1
5453 344 3 8.9999999999999997e-02 1.6209146065613936e+01 1.1400300859913891e+01 -3.6114938229941266e+01 0 0 1
5454 344 3 8.9999999999999997e-02 1.7680817884785640e+01 1.2266291820956340e+01 -3.5680953708443859e+01 0 0 1
5455 344 22 5.5000000000000004e-01 1.8092694954802781e+01 1.0247443152476556e+01 -3.6256441851972568e+01 0 0 1
5457 344 26 -6.2000000000000000e-01 1.7488130782659745e+01 9.2416968169904479e+00 -3.5559788223623706e+01 0 0 1
5458 344 1 3.2000000000000001e-01 1.7915197999785235e+01 8.3484451473913879e+00 -3.5419377001995180e+01 0 0 1
5459 344 1 2.9999999999999999e-01 1.6676140673502630e+01 9.6404011916672374e+00 -3.5133513701355071e+01 0 0 1
5279 332 1 3.1000000000000000e-01 -3.9867250254972895e+00 1.3262949527710852e+01 -3.5974673832165969e+01 0 0 1
5479 346 1 3.1000000000000000e-01 1.8991685215601045e+01 1.7842858227603379e+01 -3.5703617830719054e+01 0 0 1
5473 345 3 8.9999999999999997e-02 2.1386904809507456e+01 1.6076914254127715e+01 -3.6157814755920477e+01 0 0 1
5485 346 3 8.9999999999999997e-02 1.7236653445052781e+01 1.9961075942828650e+01 -3.5054109665469454e+01 0 0 1
5482 346 14 -2.7000000000000002e-01 1.8255943916931408e+01 2.0214483002210272e+01 -3.5416262857325641e+01 0 0 1
5483 346 3 8.9999999999999997e-02 1.8271040396959464e+01 2.1322563649575606e+01 -3.5337202891028376e+01 0 0 1
5484 346 3 8.9999999999999997e-02 1.8983757299906273e+01 1.9888135640732870e+01 -3.4642883508655764e+01 0 0 1
3069 196 13 -2.8000000000000003e-01 1.3880581480013618e+01 -1.9688078738482492e+01 -2.4364662345839367e+01 0 0 0
3072 196 22 6.2000000000000000e-01 1.4696402998480316e+01 -2.0319353969190448e+01 -2.5541091017314741e+01 0 0 0
3074 196 31 -7.6000000000000001e-01 1.4979044301795128e+01 -1.9711789980673213e+01 -2.6544040335254071e+01 0 0 0
3073 196 31 -7.6000000000000001e-01 1.5130185392449270e+01 -2.1495072608495413e+01 -2.5278840091129293e+01 0 0 0
4464 282 31 -7.6000000000000001e-01 -1.5566684077301369e+01 -1.2843000560584347e+01 -2.4385499898483630e+01 0 0 0
16 1 3 8.9999999999999997e-02 -1.0078986524209590e+01 -1.4561037461191493e+01 -2.9369257091612788e+01 0 0 0
4444 280 30 -5.1000000000000001e-01 -9.6848967376937374e+00 -1.6459645798416418e+01 -2.5510558008805116e+01 0 0 0
4445 281 25 -4.6999999999999997e-01 -9.4009878087756000e+00 -1.4543659562626793e+01 -2.4419376301657501e+01 0 0 0
4448 281 6 8.9999999999999997e-02 -1.1312123239007995e+01 -1.4876915674850178e+01 -2.4845119313170507e+01 0 0 0