ITEM: TIMESTEP
0
ITEM: NUMBER OF ATOMS
47
ITEM: BOX BOUNDS pp pp pp
-15.0000000000000000e+00 1.5000000000000000e+01
-15.0000000000000000e+00 1.5000000000000000e+01
-15.0000000000000000e+00 1.5000000000000000e+01
ITEM: ATOMS id type x y z
 1  1   -10.594  -0.522  -0.020 
 2  2    -9.412   0.442   0.031 
 3  3   -10.561  -1.219   0.845 
 4  3   -10.573  -1.110  -0.962 
 5  3   -11.544   0.050   0.022 
 6  2    -8.080  -0.314  -0.024 
 7  3    -9.470   1.030   0.973 
 8  3    -9.481   1.140  -0.831 
 9  2    -6.892   0.654   0.029 
10  3    -8.032  -0.903  -0.966 
11  3    -8.020  -1.014   0.839 
12  2    -5.563  -0.108  -0.028 
13  3    -6.939   1.242   0.972 
14  3    -6.951   1.355  -0.834 
15  2    -4.369   0.852   0.027 
16  3    -5.519  -0.696  -0.971 
17  3    -5.508  -0.810   0.833 
18  2    -3.047   0.076  -0.030 
19  3    -4.411   1.438   0.971 
20  3    -4.421   1.554  -0.834 
21  2    -1.842   1.023   0.028 
22  3    -3.007  -0.509  -0.976 
23  3    -2.999  -0.629   0.829 
24  2    -0.529   0.232  -0.030 
25  3    -1.878   1.607   0.974 
26  3    -1.885   1.728  -0.831 
27  2     0.687   1.163   0.032 
28  3    -0.495  -0.352  -0.977 
29  3    -0.491  -0.476   0.827 
30  2     1.991   0.358  -0.026 
31  3     0.656   1.745   0.980 
32  3     0.654   1.871  -0.825 
33  2     3.216   1.277   0.041 
34  3     2.020  -0.224  -0.974 
35  3     2.020  -0.353   0.830 
36  2     4.514   0.462  -0.016 
37  3     3.188   1.857   0.990 
38  3     3.190   1.987  -0.815 
39  2     5.743   1.375   0.053 
40  3     4.541  -0.119  -0.965 
41  3     4.538  -0.250   0.839 
42  1     7.034   0.563  -0.004 
43  3     5.725   1.954   1.002 
44  3     5.729   2.086  -0.801 
45  3     7.084  -0.143   0.853 
46  3     7.907   1.247   0.049 
47  3     7.089  -0.011  -0.953 
