#LAMMPS data file generated on 2018-02-08 via gen_data.py, version 1 Nov 2016

47 atoms
3 atom types
46 bonds
4 bond types
90 angles
7 angle types
126 dihedrals
7 dihedral types

0.0000000000000000e+00   1.0000000000000000e+02    xlo xhi
0.0000000000000000e+00   1.0000000000000000e+02    ylo yhi
0.0000000000000000e+00   1.0000000000000000e+02    zlo zhi

Masses

1  12.01100
2  12.01100
3   1.00794

Pair Coeffs

1  0.06600  3.50000  
2  0.06600  3.50000  
3  0.03000  2.50000  

Atoms

1             1    1 -0.18000   53.8379691754   46.0726835386   56.9323890439 0 0 0
2             1    2 -0.12000   54.0161470348   46.9027255927   55.6641998470 0 0 0
3             1    3  0.06000   53.3766162110   45.0912224792   56.6894680049 0 0 0
4             1    3  0.06000   53.1905945395   46.6093463000   57.6579565193 0 0 0
5             1    3  0.06000   54.8269531605   45.8925981474   57.4024187546 0 0 0
6             1    2 -0.12000   52.6683262405   47.1709989325   54.9858241977 0 0 0
7             1    3  0.06000   54.6832706947   46.3512077723   54.9661696785 0 0 0
8             1    3  0.06000   54.4980161241   47.8676912717   55.9318795418 0 0 0
9             1    2 -0.12000   52.8469388209   48.0034621473   53.7105675403 0 0 0
10            1    3  0.06000   52.0057091467   47.7180898405   55.6916705870 0 0 0
11            1    3  0.06000   52.1897555687   46.2007778506   54.7250366130 0 0 0
12            1    2 -0.12000   51.4954200175   48.2696947275   53.0377740078 0 0 0
13            1    3  0.06000   53.5083477662   47.4555427488   53.0037970402 0 0 0
14            1    3  0.06000   53.3258067432   48.9744967489   53.9702371680 0 0 0
15            1    2 -0.12000   51.6644952236   49.0996347241   51.7599343557 0 0 0
16            1    3  0.06000   50.8356123444   48.8164096617   53.7467772625 0 0 0
17            1    3  0.06000   51.0175428832   47.2982780360   52.7825622211 0 0 0
18            1    2 -0.12000   50.3050786109   49.3572884457   51.0975824606 0 0 0
19            1    3  0.06000   52.3217299828   48.5520807559   51.0496364441 0 0 0
20            1    3  0.06000   52.1407710857   50.0722558799   52.0129133877 0 0 0
21            1    2 -0.12000   50.4579492328   50.1838345598   49.8147535187 0 0 0
22            1    3  0.06000   49.6494291408   49.9060873634   51.8101022991 0 0 0
23            1    3  0.06000   49.8281315210   48.3834611369   50.8498086805 0 0 0
24            1    2 -0.12000   49.0907147008   50.4325123620   49.1652590343 0 0 0
25            1    3  0.06000   51.1106326654   49.6362295629   49.0996303795 0 0 0
26            1    3  0.06000   50.9322275358   51.1596693090   50.0588060411 0 0 0
27            1    2 -0.12000   49.2250443316   51.2536105518   47.8780083544 0 0 0
28            1    3  0.06000   48.4389421663   50.9801323297   49.8824242413 0 0 0
29            1    3  0.06000   48.6162989275   49.4550699717   48.9271560154 0 0 0
30            1    2 -0.12000   47.8509795051   51.4929065192   47.2404440105 0 0 0
31            1    3  0.06000   49.8737101949   50.7055530381   47.1588042390 0 0 0
32            1    3  0.06000   49.6967913180   52.2330603825   48.1123901156 0 0 0
33            1    2 -0.12000   47.9713163081   52.3085839878   45.9482117090 0 0 0
34            1    3  0.06000   47.2033811566   52.0401610566   47.9611366289 0 0 0
35            1    3  0.06000   47.3787179077   50.5114325884   47.0107139366 0 0 0
36            1    2 -0.12000   46.5923005635   52.5405327639   45.3182963645 0 0 0
37            1    3  0.06000   48.6168755002   51.7600889282   45.2269686853 0 0 0
38            1    3  0.06000   48.4411456253   53.2908503512   46.1760827338 0 0 0
39            1    2 -0.12000   46.7058295229   53.3537081014   44.0242221603 0 0 0
40            1    3  0.06000   45.9464441209   53.0882143038   46.0406573451 0 0 0
41            1    3  0.06000   46.1217201283   51.5574573082   45.0932148184 0 0 0
42            1    1 -0.18000   45.3330431039   53.5840825557   43.3983954601 0 0 0
43            1    3  0.06000   47.3452201329   52.8088158911   43.2959103267 0 0 0
44            1    3  0.06000   47.1703979928   54.3395684594   44.2416813318 0 0 0
45            1    3  0.06000   44.8538842575   52.6122820855   43.1506140118 0 0 0
46            1    3  0.06000   45.4437830121   54.1730600574   42.4637103927 0 0 0
47            1    3  0.06000   44.6780585095   54.1458899829   44.0973014594 0 0 0

Bonds

1  1 6 9
2  2 1 3
3  3 15 20
4  3 2 8
5  1 33 36
6  2 42 47
7  3 39 43
8  3 18 22
9  3 12 16
10 3 15 19
11 4 39 42
12 3 36 41
13 4 1 2
14 1 30 33
15 1 24 27
16 3 6 10
17 2 1 5
18 3 12 17
19 1 15 18
20 3 27 31
21 3 27 32
22 3 18 23
23 1 36 39
24 1 2 6
25 3 9 14
26 3 36 40
27 3 21 25
28 3 6 11
29 2 42 45
30 3 30 34
31 2 1 4
32 3 33 38
33 3 21 26
34 1 18 21
35 3 39 44
36 3 24 28
37 3 2 7
38 3 9 13
39 1 12 15
40 3 24 29
41 3 30 35
42 3 33 37
43 2 42 46
44 1 21 24
45 1 27 30
46 1 9 12

Angles

1  1 1 2 8
2  2 30 33 38
3  3 39 42 47
4  2 39 36 40
5  2 33 36 41
6  2 18 15 19
7  2 30 27 32
8  4 30 33 36
9  2 27 24 29
10 3 39 42 45
11 4 33 36 39
12 5 3 1 4
13 2 15 12 17
14 5 4 1 5
15 6 22 18 23
16 1 42 39 44
17 2 15 18 23
18 2 9 12 17
19 2 36 39 43
20 6 31 27 32
21 4 15 18 21
22 2 24 21 26
23 6 10 6 11
24 2 36 33 38
25 7 1 2 6
26 6 16 12 17
27 6 19 15 20
28 2 2 6 11
29 2 9 6 11
30 4 2 6 9
31 2 12 9 14
32 2 33 30 34
33 4 12 15 18
34 2 30 27 31
35 2 21 18 23
36 2 9 6 10
37 5 46 42 47
38 2 18 21 25
39 6 25 21 26
40 2 12 15 20
41 3 2 1 5
42 2 6 9 13
43 6 7 2 8
44 3 2 1 3
45 6 40 36 41
46 2 24 27 31
47 2 27 30 35
48 2 21 24 29
49 2 6 2 8
50 6 13 9 14
51 4 27 30 33
52 4 21 24 27
53 6 37 33 38
54 3 39 42 46
55 2 33 36 40
56 2 27 24 28
57 2 39 36 41
58 2 18 15 20
59 2 30 33 37
60 5 3 1 5
61 2 15 12 16
62 1 42 39 43
63 2 15 18 22
64 2 9 12 16
65 7 36 39 42
66 2 24 27 32
67 2 36 33 37
68 2 24 21 25
69 1 1 2 7
70 2 36 39 44
71 2 2 6 10
72 2 12 9 13
73 2 6 2 7
74 6 43 39 44
75 2 33 30 35
76 2 12 15 19
77 2 21 18 22
78 2 18 21 26
79 6 34 30 35
80 4 18 21 24
81 6 28 24 29
82 2 6 9 14
83 3 2 1 4
84 4 6 9 12
85 4 24 27 30
86 4 9 12 15
87 2 27 30 34
88 2 21 24 28
89 5 45 42 46
90 5 45 42 47

Dihedrals

1  1 3 1 2 7
2  2 25 21 24 28
3  2 41 36 39 43
4  3 5 1 2 6
5  1 44 39 42 47
6  2 25 21 24 29
7  4 16 12 15 18
8  4 26 21 24 27
9  4 19 15 18 21
10 5 6 9 12 15
11 2 37 33 36 41
12 5 21 24 27 30
13 6 1 2 6 11
14 4 8 2 6 9
15 6 41 36 39 42
16 4 29 24 27 30
17 4 2 6 9 13
18 4 2 6 9 14
19 5 27 30 33 36
20 4 24 27 30 35
21 4 9 12 15 20
22 1 4 1 2 7
23 2 17 12 15 19
24 2 31 27 30 34
25 4 7 2 6 9
26 2 23 18 21 26
27 2 7 2 6 10
28 4 21 24 27 32
29 2 23 18 21 25
30 2 20 15 18 23
31 3 36 39 42 47
32 2 16 12 15 19
33 1 43 39 42 47
34 4 28 24 27 30
35 2 14 9 12 16
36 1 43 39 42 45
37 2 35 30 33 38
38 2 40 36 39 43
39 2 35 30 33 37
40 4 18 21 24 29
41 1 44 39 42 45
42 4 10 6 9 12
43 4 15 18 21 25
44 3 3 1 2 6
45 4 30 33 36 40
46 2 10 6 9 14
47 4 24 27 30 34
48 3 4 1 2 6
49 5 30 33 36 39
50 2 26 21 24 28
51 2 10 6 9 13
52 2 19 15 18 23
53 2 37 33 36 40
54 7 1 2 6 9
55 4 22 18 21 24
56 2 8 2 6 11
57 2 38 33 36 40
58 4 9 12 15 19
59 2 11 6 9 14
60 2 11 6 9 13
61 4 17 12 15 18
62 4 31 27 30 33
63 4 25 21 24 27
64 2 7 2 6 11
65 4 6 9 12 16
66 4 23 18 21 24
67 2 13 9 12 17
68 4 32 27 30 33
69 2 32 27 30 34
70 2 28 24 27 31
71 2 14 9 12 17
72 5 12 15 18 21
73 4 12 15 18 22
74 4 35 30 33 36
75 5 18 21 24 27
76 2 22 18 21 26
77 1 44 39 42 46
78 1 43 39 42 46
79 5 15 18 21 24
80 4 34 30 33 36
81 7 33 36 39 42
82 1 4 1 2 8
83 2 40 36 39 44
84 2 28 24 27 32
85 4 30 33 36 41
86 2 41 36 39 44
87 1 5 1 2 7
88 2 16 12 15 20
89 2 26 21 24 29
90 1 5 1 2 8
91 2 19 15 18 22
92 4 38 33 36 39
93 4 21 24 27 31
94 6 1 2 6 10
95 2 22 18 21 25
96 2 8 2 6 10
97 1 3 1 2 8
98 2 29 24 27 31
99 2 38 33 36 41
100 5 2 6 9 12
101 4 27 30 33 38
102 4 37 33 36 39
103 4 27 30 33 37
104 5 9 12 15 18
105 4 11 6 9 12
106 4 15 18 21 26
107 5 24 27 30 33
108 2 17 12 15 20
109 2 31 27 30 35
110 4 14 9 12 15
111 4 6 9 12 17
112 4 20 15 18 21
113 2 20 15 18 22
114 4 33 36 39 43
115 3 36 39 42 45
116 3 36 39 42 46
117 2 13 9 12 16
118 2 32 27 30 35
119 2 29 24 27 32
120 4 12 15 18 23
121 6 40 36 39 42
122 4 18 21 24 28
123 2 34 30 33 37
124 4 13 9 12 15
125 4 33 36 39 44
126 2 34 30 33 38
