LAMMPS data file via GBCG Mapping, version 1 2018-09-10

1 atoms
1 atom types
0 bonds
0 bond types
0 angles
0 angle types
0 dihedrals
0 dihedral types

-15.0 15.0 xlo xhi
-15.0 15.0 ylo yhi
-15.0 15.0 zlo zhi

Masses

1   212.4191

Pair Coeffs

1         0.1000     6.6225

Bond Coeffs


Angle Coeffs


Dihedral Coeffs


Atoms

1 1 1    0.000        -1.80924         0.49747         0.00410 0 0 0

Bonds


Angles


Dihedrals

