ITEM: TIMESTEP
0
ITEM: NUMBER OF ATOMS
105
ITEM: BOX BOUNDS pp pp pp
9.0315283315673867e-01 1.0153964716683619e+02
9.0315283315673867e-01 1.0153964716683619e+02
9.0315283315673867e-01 1.0153964716683619e+02
ITEM: ATOMS id type x y z
1                 1    48.2994097426   47.0755292659   45.8369065089
2                 2    51.1889529586   50.7772348466   49.8087370437
3                 3    49.4715321536   50.0535291322   48.3494766772
4                 4    50.8565069302   50.0090134032   48.6400901971
5                 5    51.3170179016   48.5240794379   48.7316585532
6                 5    50.9959637423   47.8156493805   47.3713317246
7                 6    52.7119363418   48.4830402058   48.9798688005
8                 5    49.4940079903   48.0332867121   47.0404769061
9                 6    51.3289654060   46.4252666849   47.4336522802
10                7    51.6135094522   48.3423057557   46.6026312897
11                7    48.8880316320   47.5213669242   47.8278851763
12                8    49.1796628073   47.5299009889   45.7683873182
13                9    49.2032660821   49.5454719538   47.0598402097
14               10    47.7494948507   49.8738191889   46.7004973372
15                7    49.8263047760   50.0632778014   46.2923625943
16                6    46.8728336776   49.2520959683   47.6220619983
17               11    47.5431410427   49.5102513671   45.6723253939
18                7    51.4195480597   50.5061345892   47.8165908267
19                8    47.7679425711   52.8805720436   53.6328491713
20                3    48.3688365055   52.5605036092   51.4604312380
21               12    48.8615720822   52.6763726521   52.7794429955
22                5    49.5885101086   51.3694034535   53.1773545680
23                5    50.7176541931   51.0589417691   52.1664776324
24                6    49.9888398404   51.3372215931   54.5456419770
25                7    48.8417235929   50.5510684555   53.0746329496
26               13    50.1229127832   51.0157645283   50.7318946333
27                6    51.3147091640   49.8172831900   52.5042650428
28                7    51.4325835138   51.9158856785   52.2010782475
29                9    49.4237066253   52.4086531010   50.5213378169
30               10    48.8075338484   52.6379437745   49.1376265406
31                7    50.1808231064   53.2201760017   50.6387525339
32               11    48.0377227368   51.8504415713   48.9599635669
33               11    49.5856518310   52.5463435473   48.3526374938
34                6    48.2861190663   53.9542088365   49.0630148027
35                7    49.5203982796   53.5746901639   52.8225091039
36                7    49.3708030668   50.1934915456   50.7079965889
37                7    50.7237815558   48.0725485249   49.5636299906
38               11    47.6656246978   50.9848477828   46.7094002057
39               14    53.0920019466   47.3523451034   49.7502665689
40               15    55.5084916244   47.6861179539   49.0505120969
41                8    54.7544380290   45.6174366982   49.9476876861
42               14    51.6866973233   45.9247203416   46.1488226286
43               16    51.9827532903   44.4116177851   46.1586469819
44                7    52.1078493236   44.0997585307   45.0985810462
45                8    50.9019288729   43.6900482564   46.6940328185
46               17    54.1397290183   44.5870485209   46.3928771375
47                1    50.8728259447   43.8730316119   47.6699421951
48               15    53.2908688262   44.0378364815   46.8548906762
49               17    53.2333493293   44.2643483413   47.9324847022
50               17    53.4801338226   42.9496116061   46.7371350752
51               10    46.8795715631   53.9379967981   48.9204409928
52               16    46.3546537670   55.3804841107   48.9246434183
53                7    46.8206699048   55.9205087536   48.0714380828
54                8    46.7217547262   56.0419992109   50.1098369291
55               17    44.5509629555   54.9449304407   47.7746497414
56                1    46.3039672304   55.5563101313   50.8689803452
57               15    44.8342263643   55.4275235224   48.7332882336
58               17    44.3186929996   54.9017346438   49.5652241717
59               17    44.4905252299   56.4839782312   48.7113114625
60               14    52.7303758511   49.8964805805   52.5179253704
61               16    53.2820734691   48.8024018299   53.4365887613
62                7    52.9172187344   47.8184654410   53.0651399691
63                8    52.8131957981   49.0220212994   54.7411848744
64               17    55.1938012662   48.6399371255   52.4012858831
65                1    52.9132178844   48.1650434790   55.2325692429
66               15    54.8128024458   48.8138009748   53.4289167803
67               17    55.1972735040   49.7905788611   53.7953700054
68               17    55.2007413424   48.0093700746   54.0883925868
69               14    51.0133868706   52.2530874842   54.8842657394
70               16    51.1192876014   52.3264327959   56.4146906805
71                7    51.3337251158   51.3049785511   56.7963407535
72                8    49.9046311021   52.7548524472   56.9780024869
73               17    53.2325594014   52.8679254800   56.4533943247
74                1    49.7239967409   53.6735944553   56.6472694372
75               15    52.2677048021   53.2387610145   56.8598492528
76               17    52.1043635657   54.2780104981   56.5034083021
77               17    52.3327461331   53.2464980140   57.9689298468
78               10    45.6154172542   49.9044320754   47.6739806000
79               16    44.6391277654   49.3548483465   46.6138378931
80                7    44.5689712776   48.2534439116   46.7457937110
81                8    45.0951953692   49.6109296829   45.3105245425
82               17    42.8451924233   49.6928513672   47.8098959797
83                1    45.1736049325   50.5963635934   45.2074083536
84               15    43.2349615845   49.9386717026   46.7988260693
85               17    43.2513031512   51.0429577355   46.6792254394
86               17    42.5466251204   49.5068944497   46.0412039233
87               11    45.1933526647   49.6967319528   48.6799657596
88               11    45.6939901326   51.0147134302   47.6208052662
89               11    46.5999381715   53.4651324475   47.9513060837
90               11    46.4044881815   53.3880031470   49.7659389315
91               11    51.9863519370   51.8966530623   54.5006324739
92               11    50.8131076883   53.2783626908   54.5141022622
93               11    53.1120423360   49.7733060261   51.4845369035
94               11    53.1206639857   50.8604793363   52.9113203001
95               16    54.3459403803   46.7008862904   49.1519624494
96               11    52.3051879766   46.5641219801   49.8081378454
97               11    53.3128420900   47.6686379528   50.7833602067
98               17    55.2384489939   48.5466298856   48.4030939994
99               17    56.3857865019   47.1741252456   48.5987918686
100              17    55.7928764219   48.0578738375   50.0564777275
101               1    54.0261930300   44.9447229593   49.9349030515
102               7    54.1241201330   46.3571719506   48.1218856414
103              11    50.8463177983   46.0253039505   45.4409580995
104              11    52.5734405382   46.4566654433   45.7384010412
105               1    47.8804670779   53.2279964979   54.6598153265
