ITEM: TIMESTEP
	0
ITEM: NUMBER OF ATOMS
	1
ITEM: BOX BOUNDS pp pp pp
  -15.0000   15.0000
  -15.0000   15.0000
  -15.0000   15.0000
ITEM: ATOMS id type x y z
1         1        -1.8092      0.4975      0.0041
